!2-port S-parameter file
!Title: test for scattering parameters
!Generated by ngspice at Tue Jul 20 11:23:25  2021
# Hz S RI R 50
!freq            ReS11           ImS11           ReS21           ImS21           ReS12           ImS12           ReS22           ImS22         
 3.000000e+07   9.649841e-01  -1.987747e-02  -9.592343e+00   2.449872e-01   2.344565e-05   1.248090e-03   9.953572e-01  -2.209045e-02  
 4.000000e+07   9.647259e-01  -2.649736e-02  -9.588213e+00   3.265063e-01   4.114368e-05   1.663617e-03   9.949346e-01  -2.943667e-02  
 5.000000e+07   9.643941e-01  -3.311218e-02  -9.582910e+00   4.079029e-01   6.387419e-05   2.078714e-03   9.943922e-01  -3.676813e-02  
 6.000000e+07   9.639890e-01  -3.972067e-02  -9.576441e+00   4.891470e-01   9.161926e-05   2.493275e-03   9.937309e-01  -4.408125e-02  
 7.000000e+07   9.635107e-01  -4.632158e-02  -9.568813e+00   5.702089e-01   1.243571e-04   2.907196e-03   9.929514e-01  -5.137246e-02  
 8.000000e+07   9.629594e-01  -5.291368e-02  -9.560032e+00   6.510593e-01   1.620622e-04   3.320372e-03   9.920551e-01  -5.863825e-02  
 9.000000e+07   9.623355e-01  -5.949575e-02  -9.550110e+00   7.316695e-01   2.047053e-04   3.732703e-03   9.910429e-01  -6.587519e-02  
 1.000000e+08   9.616392e-01  -6.606656e-02  -9.539056e+00   8.120113e-01   2.522537e-04   4.144087e-03   9.899164e-01  -7.307994e-02  
 1.100000e+08   9.608709e-01  -7.262493e-02  -9.526881e+00   8.920571e-01   3.046712e-04   4.554427e-03   9.886771e-01  -8.024923e-02  
 1.200000e+08   9.600309e-01  -7.916968e-02  -9.513600e+00   9.717799e-01   3.619182e-04   4.963625e-03   9.873266e-01  -8.737986e-02  
 1.300000e+08   9.591196e-01  -8.569963e-02  -9.499224e+00   1.051154e+00   4.239521e-04   5.371587e-03   9.858667e-01  -9.446878e-02  
 1.400000e+08   9.581375e-01  -9.221364e-02  -9.483768e+00   1.130153e+00   4.907272e-04   5.778222e-03   9.842993e-01  -1.015130e-01  
 1.500000e+08   9.570850e-01  -9.871060e-02  -9.467249e+00   1.208753e+00   5.621951e-04   6.183439e-03   9.826265e-01  -1.085097e-01  
 1.600000e+08   9.559627e-01  -1.051894e-01  -9.449681e+00   1.286931e+00   6.383043e-04   6.587153e-03   9.808503e-01  -1.154561e-01  
 1.700000e+08   9.547709e-01  -1.116489e-01  -9.431083e+00   1.364662e+00   7.190014e-04   6.989277e-03   9.789730e-01  -1.223495e-01  
 1.800000e+08   9.535103e-01  -1.180881e-01  -9.411471e+00   1.441926e+00   8.042300e-04   7.389732e-03   9.769970e-01  -1.291876e-01  
 1.900000e+08   9.521814e-01  -1.245060e-01  -9.390865e+00   1.518702e+00   8.939320e-04   7.788437e-03   9.749246e-01  -1.359679e-01  
 2.000000e+08   9.507848e-01  -1.309015e-01  -9.369283e+00   1.594969e+00   9.880472e-04   8.185318e-03   9.727583e-01  -1.426882e-01  
 2.100000e+08   9.493212e-01  -1.372737e-01  -9.346744e+00   1.670709e+00   1.086513e-03   8.580301e-03   9.705006e-01  -1.493464e-01  
 2.200000e+08   9.477910e-01  -1.436215e-01  -9.323269e+00   1.745903e+00   1.189267e-03   8.973316e-03   9.681542e-01  -1.559405e-01  
 2.300000e+08   9.461950e-01  -1.499441e-01  -9.298878e+00   1.820534e+00   1.296243e-03   9.364297e-03   9.657217e-01  -1.624688e-01  
 2.400000e+08   9.445337e-01  -1.562405e-01  -9.273591e+00   1.894587e+00   1.407375e-03   9.753180e-03   9.632057e-01  -1.689295e-01  
 2.500000e+08   9.428080e-01  -1.625098e-01  -9.247430e+00   1.968046e+00   1.522595e-03   1.013990e-02   9.606090e-01  -1.753211e-01  
 2.600000e+08   9.410184e-01  -1.687512e-01  -9.220416e+00   2.040897e+00   1.641835e-03   1.052441e-02   9.579344e-01  -1.816421e-01  
 2.700000e+08   9.391657e-01  -1.749638e-01  -9.192569e+00   2.113128e+00   1.765026e-03   1.090664e-02   9.551845e-01  -1.878913e-01  
 2.800000e+08   9.372505e-01  -1.811469e-01  -9.163913e+00   2.184726e+00   1.892098e-03   1.128655e-02   9.523621e-01  -1.940676e-01  
 2.900000e+08   9.352737e-01  -1.872995e-01  -9.134468e+00   2.255680e+00   2.022981e-03   1.166409e-02   9.494701e-01  -2.001699e-01  
 3.000000e+08   9.332358e-01  -1.934210e-01  -9.104255e+00   2.325981e+00   2.157604e-03   1.203921e-02   9.465111e-01  -2.061973e-01  
 3.100000e+08   9.311377e-01  -1.995107e-01  -9.073297e+00   2.395618e+00   2.295896e-03   1.241187e-02   9.434879e-01  -2.121490e-01  
 3.200000e+08   9.289801e-01  -2.055677e-01  -9.041614e+00   2.464584e+00   2.437787e-03   1.278203e-02   9.404033e-01  -2.180245e-01  
 3.300000e+08   9.267637e-01  -2.115915e-01  -9.009229e+00   2.532872e+00   2.583207e-03   1.314964e-02   9.372598e-01  -2.238232e-01  
 3.400000e+08   9.244893e-01  -2.175813e-01  -8.976162e+00   2.600474e+00   2.732084e-03   1.351468e-02   9.340603e-01  -2.295447e-01  
 3.500000e+08   9.221576e-01  -2.235365e-01  -8.942434e+00   2.667385e+00   2.884349e-03   1.387712e-02   9.308072e-01  -2.351886e-01  
 3.600000e+08   9.197695e-01  -2.294565e-01  -8.908066e+00   2.733600e+00   3.039932e-03   1.423692e-02   9.275033e-01  -2.407548e-01  
 3.700000e+08   9.173256e-01  -2.353407e-01  -8.873079e+00   2.799115e+00   3.198763e-03   1.459405e-02   9.241511e-01  -2.462432e-01  
 3.800000e+08   9.148267e-01  -2.411885e-01  -8.837493e+00   2.863926e+00   3.360775e-03   1.494849e-02   9.207530e-01  -2.516537e-01  
 3.900000e+08   9.122737e-01  -2.469994e-01  -8.801327e+00   2.928031e+00   3.525900e-03   1.530023e-02   9.173115e-01  -2.569866e-01  
 4.000000e+08   9.096672e-01  -2.527728e-01  -8.764602e+00   2.991428e+00   3.694071e-03   1.564922e-02   9.138291e-01  -2.622418e-01  
 4.100000e+08   9.070080e-01  -2.585081e-01  -8.727335e+00   3.054115e+00   3.865220e-03   1.599547e-02   9.103080e-01  -2.674198e-01  
 4.200000e+08   9.042969e-01  -2.642050e-01  -8.689547e+00   3.116090e+00   4.039284e-03   1.633894e-02   9.067505e-01  -2.725208e-01  
 4.300000e+08   9.015346e-01  -2.698630e-01  -8.651256e+00   3.177355e+00   4.216198e-03   1.667963e-02   9.031589e-01  -2.775452e-01  
 4.400000e+08   8.987220e-01  -2.754815e-01  -8.612479e+00   3.237909e+00   4.395897e-03   1.701753e-02   8.995353e-01  -2.824936e-01  
 4.500000e+08   8.958597e-01  -2.810602e-01  -8.573234e+00   3.297753e+00   4.578321e-03   1.735261e-02   8.958818e-01  -2.873664e-01  
 4.600000e+08   8.929486e-01  -2.865985e-01  -8.533539e+00   3.356889e+00   4.763407e-03   1.768487e-02   8.922003e-01  -2.921642e-01  
 4.700000e+08   8.899893e-01  -2.920962e-01  -8.493410e+00   3.415316e+00   4.951095e-03   1.801431e-02   8.884930e-01  -2.968877e-01  
 4.800000e+08   8.869826e-01  -2.975528e-01  -8.452863e+00   3.473039e+00   5.141326e-03   1.834090e-02   8.847617e-01  -3.015376e-01  
 4.900000e+08   8.839294e-01  -3.029680e-01  -8.411915e+00   3.530059e+00   5.334042e-03   1.866466e-02   8.810081e-01  -3.061146e-01  
 5.000000e+08   8.808302e-01  -3.083413e-01  -8.370581e+00   3.586378e+00   5.529185e-03   1.898557e-02   8.772341e-01  -3.106196e-01  
 5.100000e+08   8.776859e-01  -3.136725e-01  -8.328875e+00   3.642001e+00   5.726701e-03   1.930363e-02   8.734413e-01  -3.150532e-01  
 5.200000e+08   8.744971e-01  -3.189612e-01  -8.286812e+00   3.696930e+00   5.926533e-03   1.961884e-02   8.696313e-01  -3.194164e-01  
 5.300000e+08   8.712647e-01  -3.242071e-01  -8.244407e+00   3.751169e+00   6.128629e-03   1.993119e-02   8.658058e-01  -3.237100e-01  
 5.400000e+08   8.679894e-01  -3.294099e-01  -8.201672e+00   3.804721e+00   6.332936e-03   2.024069e-02   8.619663e-01  -3.279350e-01  
 5.500000e+08   8.646718e-01  -3.345693e-01  -8.158623e+00   3.857591e+00   6.539402e-03   2.054734e-02   8.581140e-01  -3.320922e-01  
 5.600000e+08   8.613127e-01  -3.396850e-01  -8.115270e+00   3.909784e+00   6.747977e-03   2.085113e-02   8.542505e-01  -3.361827e-01  
 5.700000e+08   8.579128e-01  -3.447568e-01  -8.071627e+00   3.961302e+00   6.958612e-03   2.115207e-02   8.503769e-01  -3.402073e-01  
 5.800000e+08   8.544728e-01  -3.497844e-01  -8.027705e+00   4.012152e+00   7.171257e-03   2.145016e-02   8.464947e-01  -3.441671e-01  
 5.900000e+08   8.509934e-01  -3.547676e-01  -7.983517e+00   4.062337e+00   7.385867e-03   2.174540e-02   8.426049e-01  -3.480629e-01  
 6.000000e+08   8.474753e-01  -3.597060e-01  -7.939074e+00   4.111863e+00   7.602394e-03   2.203780e-02   8.387086e-01  -3.518959e-01  
 6.100000e+08   8.439193e-01  -3.645996e-01  -7.894385e+00   4.160734e+00   7.820794e-03   2.232737e-02   8.348071e-01  -3.556670e-01  
 6.200000e+08   8.403260e-01  -3.694481e-01  -7.849463e+00   4.208955e+00   8.041021e-03   2.261410e-02   8.309011e-01  -3.593771e-01  
 6.300000e+08   8.366961e-01  -3.742513e-01  -7.804317e+00   4.256531e+00   8.263033e-03   2.289800e-02   8.269919e-01  -3.630273e-01  
 6.400000e+08   8.330302e-01  -3.790090e-01  -7.758957e+00   4.303468e+00   8.486787e-03   2.317908e-02   8.230801e-01  -3.666186e-01  
 6.500000e+08   8.293291e-01  -3.837210e-01  -7.713392e+00   4.349770e+00   8.712241e-03   2.345734e-02   8.191668e-01  -3.701520e-01  
 6.600000e+08   8.255935e-01  -3.883871e-01  -7.667631e+00   4.395443e+00   8.939355e-03   2.373279e-02   8.152527e-01  -3.736284e-01  
 6.700000e+08   8.218240e-01  -3.930072e-01  -7.621685e+00   4.440492e+00   9.168089e-03   2.400544e-02   8.113386e-01  -3.770488e-01  
 6.800000e+08   8.180212e-01  -3.975812e-01  -7.575560e+00   4.484921e+00   9.398402e-03   2.427529e-02   8.074253e-01  -3.804142e-01  
 6.900000e+08   8.141859e-01  -4.021088e-01  -7.529265e+00   4.528736e+00   9.630258e-03   2.454235e-02   8.035134e-01  -3.837256e-01  
 7.000000e+08   8.103187e-01  -4.065900e-01  -7.482809e+00   4.571943e+00   9.863619e-03   2.480662e-02   7.996035e-01  -3.869839e-01  
 7.100000e+08   8.064203e-01  -4.110246e-01  -7.436198e+00   4.614546e+00   1.009845e-02   2.506812e-02   7.956964e-01  -3.901900e-01  
 7.200000e+08   8.024913e-01  -4.154124e-01  -7.389441e+00   4.656550e+00   1.033471e-02   2.532686e-02   7.917924e-01  -3.933449e-01  
 7.300000e+08   7.985324e-01  -4.197535e-01  -7.342545e+00   4.697960e+00   1.057236e-02   2.558283e-02   7.878923e-01  -3.964495e-01  
 7.400000e+08   7.945442e-01  -4.240476e-01  -7.295516e+00   4.738782e+00   1.081138e-02   2.583605e-02   7.839964e-01  -3.995047e-01  
 7.500000e+08   7.905273e-01  -4.282947e-01  -7.248362e+00   4.779020e+00   1.105172e-02   2.608652e-02   7.801053e-01  -4.025114e-01  
 7.600000e+08   7.864824e-01  -4.324946e-01  -7.201088e+00   4.818679e+00   1.129335e-02   2.633426e-02   7.762193e-01  -4.054704e-01  
 7.700000e+08   7.824101e-01  -4.366474e-01  -7.153702e+00   4.857764e+00   1.153625e-02   2.657928e-02   7.723390e-01  -4.083826e-01  
 7.800000e+08   7.783111e-01  -4.407529e-01  -7.106209e+00   4.896281e+00   1.178037e-02   2.682157e-02   7.684646e-01  -4.112489e-01  
 7.900000e+08   7.741860e-01  -4.448110e-01  -7.058616e+00   4.934233e+00   1.202569e-02   2.706115e-02   7.645965e-01  -4.140701e-01  
 8.000000e+08   7.700354e-01  -4.488218e-01  -7.010928e+00   4.971625e+00   1.227217e-02   2.729803e-02   7.607351e-01  -4.168469e-01  
 8.100000e+08   7.658600e-01  -4.527850e-01  -6.963151e+00   5.008463e+00   1.251978e-02   2.753221e-02   7.568806e-01  -4.195803e-01  
 8.200000e+08   7.616602e-01  -4.567008e-01  -6.915290e+00   5.044750e+00   1.276850e-02   2.776372e-02   7.530334e-01  -4.222709e-01  
 8.300000e+08   7.574369e-01  -4.605690e-01  -6.867350e+00   5.080491e+00   1.301829e-02   2.799254e-02   7.491936e-01  -4.249195e-01  
 8.400000e+08   7.531905e-01  -4.643897e-01  -6.819337e+00   5.115691e+00   1.326912e-02   2.821870e-02   7.453616e-01  -4.275269e-01  
 8.500000e+08   7.489216e-01  -4.681627e-01  -6.771256e+00   5.150354e+00   1.352096e-02   2.844220e-02   7.415375e-01  -4.300937e-01  
 8.600000e+08   7.446310e-01  -4.718881e-01  -6.723111e+00   5.184485e+00   1.377379e-02   2.866305e-02   7.377216e-01  -4.326208e-01  
 8.700000e+08   7.403191e-01  -4.755658e-01  -6.674908e+00   5.218087e+00   1.402758e-02   2.888126e-02   7.339140e-01  -4.351088e-01  
 8.800000e+08   7.359866e-01  -4.791960e-01  -6.626651e+00   5.251165e+00   1.428229e-02   2.909684e-02   7.301149e-01  -4.375584e-01  
 8.900000e+08   7.316340e-01  -4.827784e-01  -6.578344e+00   5.283723e+00   1.453791e-02   2.930979e-02   7.263245e-01  -4.399702e-01  
 9.000000e+08   7.272620e-01  -4.863133e-01  -6.529992e+00   5.315765e+00   1.479440e-02   2.952014e-02   7.225428e-01  -4.423449e-01  
 9.100000e+08   7.228712e-01  -4.898005e-01  -6.481599e+00   5.347295e+00   1.505173e-02   2.972788e-02   7.187701e-01  -4.446831e-01  
 9.200000e+08   7.184620e-01  -4.932401e-01  -6.433169e+00   5.378318e+00   1.530989e-02   2.993303e-02   7.150064e-01  -4.469855e-01  
 9.300000e+08   7.140352e-01  -4.966321e-01  -6.384707e+00   5.408837e+00   1.556883e-02   3.013559e-02   7.112519e-01  -4.492526e-01  
 9.400000e+08   7.095912e-01  -4.999766e-01  -6.336216e+00   5.438855e+00   1.582855e-02   3.033558e-02   7.075066e-01  -4.514850e-01  
 9.500000e+08   7.051307e-01  -5.032736e-01  -6.287701e+00   5.468377e+00   1.608901e-02   3.053300e-02   7.037707e-01  -4.536833e-01  
 9.600000e+08   7.006541e-01  -5.065231e-01  -6.239165e+00   5.497407e+00   1.635018e-02   3.072787e-02   7.000441e-01  -4.558481e-01  
 9.700000e+08   6.961621e-01  -5.097253e-01  -6.190612e+00   5.525948e+00   1.661205e-02   3.092019e-02   6.963270e-01  -4.579799e-01  
 9.800000e+08   6.916553e-01  -5.128800e-01  -6.142045e+00   5.554004e+00   1.687459e-02   3.110997e-02   6.926194e-01  -4.600792e-01  
 9.900000e+08   6.871341e-01  -5.159875e-01  -6.093469e+00   5.581579e+00   1.713776e-02   3.129723e-02   6.889214e-01  -4.621466e-01  
 1.000000e+09   6.825991e-01  -5.190478e-01  -6.044887e+00   5.608675e+00   1.740156e-02   3.148197e-02   6.852329e-01  -4.641825e-01  
 1.010000e+09   6.780510e-01  -5.220610e-01  -5.996303e+00   5.635297e+00   1.766595e-02   3.166420e-02   6.815542e-01  -4.661875e-01  
 1.020000e+09   6.734901e-01  -5.250270e-01  -5.947719e+00   5.661449e+00   1.793091e-02   3.184394e-02   6.778850e-01  -4.681619e-01  
 1.030000e+09   6.689171e-01  -5.279461e-01  -5.899140e+00   5.687132e+00   1.819642e-02   3.202119e-02   6.742256e-01  -4.701064e-01  
 1.040000e+09   6.643325e-01  -5.308184e-01  -5.850568e+00   5.712352e+00   1.846245e-02   3.219596e-02   6.705759e-01  -4.720212e-01  
 1.050000e+09   6.597368e-01  -5.336438e-01  -5.802007e+00   5.737111e+00   1.872898e-02   3.236827e-02   6.669360e-01  -4.739070e-01  
 1.060000e+09   6.551305e-01  -5.364226e-01  -5.753460e+00   5.761413e+00   1.899599e-02   3.253812e-02   6.633057e-01  -4.757641e-01  
 1.070000e+09   6.505143e-01  -5.391549e-01  -5.704931e+00   5.785260e+00   1.926346e-02   3.270553e-02   6.596853e-01  -4.775929e-01  
 1.080000e+09   6.458885e-01  -5.418406e-01  -5.656422e+00   5.808657e+00   1.953136e-02   3.287050e-02   6.560745e-01  -4.793938e-01  
 1.090000e+09   6.412537e-01  -5.444801e-01  -5.607936e+00   5.831606e+00   1.979968e-02   3.303304e-02   6.524736e-01  -4.811673e-01  
 1.100000e+09   6.366104e-01  -5.470733e-01  -5.559477e+00   5.854110e+00   2.006838e-02   3.319317e-02   6.488823e-01  -4.829137e-01  
 1.110000e+09   6.319591e-01  -5.496205e-01  -5.511048e+00   5.876173e+00   2.033746e-02   3.335090e-02   6.453009e-01  -4.846334e-01  
 1.120000e+09   6.273004e-01  -5.521217e-01  -5.462651e+00   5.897799e+00   2.060688e-02   3.350624e-02   6.417291e-01  -4.863267e-01  
 1.130000e+09   6.226346e-01  -5.545772e-01  -5.414289e+00   5.918989e+00   2.087663e-02   3.365919e-02   6.381671e-01  -4.879941e-01  
 1.140000e+09   6.179624e-01  -5.569870e-01  -5.365966e+00   5.939747e+00   2.114668e-02   3.380978e-02   6.346148e-01  -4.896359e-01  
 1.150000e+09   6.132841e-01  -5.593513e-01  -5.317684e+00   5.960076e+00   2.141702e-02   3.395800e-02   6.310722e-01  -4.912525e-01  
 1.160000e+09   6.086003e-01  -5.616702e-01  -5.269445e+00   5.979979e+00   2.168762e-02   3.410388e-02   6.275393e-01  -4.928440e-01  
 1.170000e+09   6.039115e-01  -5.639440e-01  -5.221254e+00   5.999460e+00   2.195847e-02   3.424742e-02   6.240161e-01  -4.944110e-01  
 1.180000e+09   5.992181e-01  -5.661728e-01  -5.173112e+00   6.018520e+00   2.222954e-02   3.438864e-02   6.205025e-01  -4.959537e-01  
 1.190000e+09   5.945205e-01  -5.683567e-01  -5.125022e+00   6.037164e+00   2.250082e-02   3.452754e-02   6.169985e-01  -4.974725e-01  
 1.200000e+09   5.898193e-01  -5.704959e-01  -5.076987e+00   6.055394e+00   2.277229e-02   3.466414e-02   6.135042e-01  -4.989675e-01  
 1.210000e+09   5.851149e-01  -5.725907e-01  -5.029009e+00   6.073213e+00   2.304392e-02   3.479844e-02   6.100194e-01  -5.004392e-01  
 1.220000e+09   5.804078e-01  -5.746411e-01  -4.981091e+00   6.090624e+00   2.331570e-02   3.493047e-02   6.065442e-01  -5.018878e-01  
 1.230000e+09   5.756983e-01  -5.766475e-01  -4.933236e+00   6.107629e+00   2.358760e-02   3.506023e-02   6.030786e-01  -5.033136e-01  
 1.240000e+09   5.709871e-01  -5.786099e-01  -4.885446e+00   6.124233e+00   2.385962e-02   3.518774e-02   5.996225e-01  -5.047169e-01  
 1.250000e+09   5.662744e-01  -5.805286e-01  -4.837724e+00   6.140436e+00   2.413173e-02   3.531300e-02   5.961759e-01  -5.060980e-01  
 1.260000e+09   5.615607e-01  -5.824037e-01  -4.790071e+00   6.156244e+00   2.440391e-02   3.543604e-02   5.927388e-01  -5.074571e-01  
 1.270000e+09   5.568465e-01  -5.842355e-01  -4.742491e+00   6.171658e+00   2.467615e-02   3.555685e-02   5.893111e-01  -5.087944e-01  
 1.280000e+09   5.521322e-01  -5.860242e-01  -4.694987e+00   6.186681e+00   2.494843e-02   3.567545e-02   5.858929e-01  -5.101103e-01  
 1.290000e+09   5.474181e-01  -5.877700e-01  -4.647559e+00   6.201316e+00   2.522073e-02   3.579187e-02   5.824841e-01  -5.114050e-01  
 1.300000e+09   5.427048e-01  -5.894730e-01  -4.600211e+00   6.215566e+00   2.549303e-02   3.590609e-02   5.790847e-01  -5.126787e-01  
 1.310000e+09   5.379926e-01  -5.911336e-01  -4.552945e+00   6.229433e+00   2.576532e-02   3.601815e-02   5.756947e-01  -5.139318e-01  
 1.320000e+09   5.332819e-01  -5.927520e-01  -4.505763e+00   6.242922e+00   2.603757e-02   3.612806e-02   5.723139e-01  -5.151643e-01  
 1.330000e+09   5.285731e-01  -5.943283e-01  -4.458668e+00   6.256033e+00   2.630979e-02   3.623581e-02   5.689426e-01  -5.163765e-01  
 1.340000e+09   5.238666e-01  -5.958628e-01  -4.411662e+00   6.268770e+00   2.658193e-02   3.634144e-02   5.655805e-01  -5.175688e-01  
 1.350000e+09   5.191628e-01  -5.973557e-01  -4.364746e+00   6.281137e+00   2.685400e-02   3.644495e-02   5.622277e-01  -5.187412e-01  
 1.360000e+09   5.144621e-01  -5.988073e-01  -4.317924e+00   6.293134e+00   2.712598e-02   3.654635e-02   5.588841e-01  -5.198941e-01  
 1.370000e+09   5.097649e-01  -6.002178e-01  -4.271197e+00   6.304767e+00   2.739784e-02   3.664565e-02   5.555498e-01  -5.210275e-01  
 1.380000e+09   5.050714e-01  -6.015874e-01  -4.224567e+00   6.316036e+00   2.766958e-02   3.674288e-02   5.522246e-01  -5.221418e-01  
 1.390000e+09   5.003822e-01  -6.029164e-01  -4.178037e+00   6.326945e+00   2.794118e-02   3.683804e-02   5.489087e-01  -5.232372e-01  
 1.400000e+09   4.956976e-01  -6.042050e-01  -4.131608e+00   6.337497e+00   2.821262e-02   3.693115e-02   5.456019e-01  -5.243138e-01  
 1.410000e+09   4.910178e-01  -6.054535e-01  -4.085283e+00   6.347695e+00   2.848389e-02   3.702221e-02   5.423043e-01  -5.253718e-01  
 1.420000e+09   4.863434e-01  -6.066621e-01  -4.039064e+00   6.357540e+00   2.875497e-02   3.711125e-02   5.390158e-01  -5.264115e-01  
 1.430000e+09   4.816745e-01  -6.078311e-01  -3.992951e+00   6.367037e+00   2.902585e-02   3.719827e-02   5.357363e-01  -5.274331e-01  
 1.440000e+09   4.770116e-01  -6.089607e-01  -3.946949e+00   6.376186e+00   2.929652e-02   3.728329e-02   5.324660e-01  -5.284366e-01  
 1.450000e+09   4.723550e-01  -6.100512e-01  -3.901057e+00   6.384993e+00   2.956697e-02   3.736632e-02   5.292047e-01  -5.294224e-01  
 1.460000e+09   4.677050e-01  -6.111028e-01  -3.855279e+00   6.393458e+00   2.983717e-02   3.744738e-02   5.259525e-01  -5.303906e-01  
 1.470000e+09   4.630619e-01  -6.121159e-01  -3.809616e+00   6.401585e+00   3.010711e-02   3.752648e-02   5.227092e-01  -5.313414e-01  
 1.480000e+09   4.584262e-01  -6.130906e-01  -3.764069e+00   6.409377e+00   3.037679e-02   3.760363e-02   5.194750e-01  -5.322749e-01  
 1.490000e+09   4.537980e-01  -6.140273e-01  -3.718642e+00   6.416835e+00   3.064619e-02   3.767884e-02   5.162497e-01  -5.331914e-01  
 1.500000e+09   4.491777e-01  -6.149262e-01  -3.673334e+00   6.423964e+00   3.091529e-02   3.775214e-02   5.130334e-01  -5.340910e-01  
 1.510000e+09   4.445656e-01  -6.157875e-01  -3.628149e+00   6.430765e+00   3.118409e-02   3.782353e-02   5.098260e-01  -5.349739e-01  
 1.520000e+09   4.399620e-01  -6.166116e-01  -3.583088e+00   6.437241e+00   3.145257e-02   3.789302e-02   5.066276e-01  -5.358402e-01  
 1.530000e+09   4.353672e-01  -6.173987e-01  -3.538152e+00   6.443395e+00   3.172072e-02   3.796064e-02   5.034380e-01  -5.366902e-01  
 1.540000e+09   4.307815e-01  -6.181491e-01  -3.493344e+00   6.449230e+00   3.198853e-02   3.802639e-02   5.002573e-01  -5.375239e-01  
 1.550000e+09   4.262052e-01  -6.188630e-01  -3.448664e+00   6.454748e+00   3.225598e-02   3.809028e-02   4.970855e-01  -5.383416e-01  
 1.560000e+09   4.216385e-01  -6.195408e-01  -3.404115e+00   6.459952e+00   3.252307e-02   3.815234e-02   4.939225e-01  -5.391434e-01  
 1.570000e+09   4.170817e-01  -6.201827e-01  -3.359697e+00   6.464845e+00   3.278978e-02   3.821258e-02   4.907684e-01  -5.399295e-01  
 1.580000e+09   4.125352e-01  -6.207890e-01  -3.315413e+00   6.469429e+00   3.305610e-02   3.827100e-02   4.876230e-01  -5.407000e-01  
 1.590000e+09   4.079991e-01  -6.213600e-01  -3.271264e+00   6.473707e+00   3.332203e-02   3.832763e-02   4.844864e-01  -5.414550e-01  
 1.600000e+09   4.034737e-01  -6.218959e-01  -3.227252e+00   6.477681e+00   3.358754e-02   3.838247e-02   4.813586e-01  -5.421948e-01  
 1.610000e+09   3.989593e-01  -6.223970e-01  -3.183377e+00   6.481354e+00   3.385264e-02   3.843554e-02   4.782396e-01  -5.429195e-01  
 1.620000e+09   3.944561e-01  -6.228637e-01  -3.139642e+00   6.484730e+00   3.411731e-02   3.848686e-02   4.751293e-01  -5.436293e-01  
 1.630000e+09   3.899644e-01  -6.232962e-01  -3.096047e+00   6.487810e+00   3.438153e-02   3.853644e-02   4.720277e-01  -5.443242e-01  
 1.640000e+09   3.854844e-01  -6.236947e-01  -3.052594e+00   6.490597e+00   3.464531e-02   3.858428e-02   4.689347e-01  -5.450044e-01  
 1.650000e+09   3.810164e-01  -6.240597e-01  -3.009285e+00   6.493093e+00   3.490863e-02   3.863042e-02   4.658505e-01  -5.456701e-01  
 1.660000e+09   3.765605e-01  -6.243913e-01  -2.966120e+00   6.495302e+00   3.517149e-02   3.867485e-02   4.627749e-01  -5.463215e-01  
 1.670000e+09   3.721171e-01  -6.246898e-01  -2.923102e+00   6.497226e+00   3.543386e-02   3.871760e-02   4.597080e-01  -5.469585e-01  
 1.680000e+09   3.676863e-01  -6.249555e-01  -2.880230e+00   6.498868e+00   3.569575e-02   3.875867e-02   4.566497e-01  -5.475815e-01  
 1.690000e+09   3.632683e-01  -6.251888e-01  -2.837507e+00   6.500229e+00   3.595715e-02   3.879808e-02   4.535999e-01  -5.481905e-01  
 1.700000e+09   3.588634e-01  -6.253898e-01  -2.794934e+00   6.501313e+00   3.621804e-02   3.883585e-02   4.505588e-01  -5.487857e-01  
 1.710000e+09   3.544718e-01  -6.255590e-01  -2.752511e+00   6.502123e+00   3.647842e-02   3.887199e-02   4.475262e-01  -5.493672e-01  
 1.720000e+09   3.500936e-01  -6.256965e-01  -2.710240e+00   6.502660e+00   3.673829e-02   3.890651e-02   4.445022e-01  -5.499351e-01  
 1.730000e+09   3.457291e-01  -6.258026e-01  -2.668122e+00   6.502928e+00   3.699762e-02   3.893943e-02   4.414867e-01  -5.504896e-01  
 1.740000e+09   3.413785e-01  -6.258777e-01  -2.626158e+00   6.502929e+00   3.725643e-02   3.897075e-02   4.384797e-01  -5.510308e-01  
 1.750000e+09   3.370419e-01  -6.259221e-01  -2.584350e+00   6.502665e+00   3.751468e-02   3.900050e-02   4.354812e-01  -5.515588e-01  
 1.760000e+09   3.327196e-01  -6.259359e-01  -2.542697e+00   6.502139e+00   3.777239e-02   3.902868e-02   4.324912e-01  -5.520738e-01  
 1.770000e+09   3.284116e-01  -6.259196e-01  -2.501202e+00   6.501354e+00   3.802955e-02   3.905532e-02   4.295097e-01  -5.525759e-01  
 1.780000e+09   3.241183e-01  -6.258733e-01  -2.459864e+00   6.500312e+00   3.828614e-02   3.908042e-02   4.265365e-01  -5.530651e-01  
 1.790000e+09   3.198398e-01  -6.257975e-01  -2.418686e+00   6.499015e+00   3.854216e-02   3.910399e-02   4.235718e-01  -5.535418e-01  
 1.800000e+09   3.155762e-01  -6.256922e-01  -2.377668e+00   6.497467e+00   3.879760e-02   3.912606e-02   4.206155e-01  -5.540059e-01  
 1.810000e+09   3.113277e-01  -6.255580e-01  -2.336811e+00   6.495669e+00   3.905246e-02   3.914663e-02   4.176676e-01  -5.544575e-01  
 1.820000e+09   3.070945e-01  -6.253949e-01  -2.296115e+00   6.493625e+00   3.930673e-02   3.916572e-02   4.147280e-01  -5.548969e-01  
 1.830000e+09   3.028767e-01  -6.252034e-01  -2.255582e+00   6.491335e+00   3.956041e-02   3.918334e-02   4.117967e-01  -5.553241e-01  
 1.840000e+09   2.986744e-01  -6.249837e-01  -2.215213e+00   6.488804e+00   3.981348e-02   3.919950e-02   4.088738e-01  -5.557393e-01  
 1.850000e+09   2.944879e-01  -6.247361e-01  -2.175007e+00   6.486034e+00   4.006595e-02   3.921423e-02   4.059591e-01  -5.561425e-01  
 1.860000e+09   2.903173e-01  -6.244608e-01  -2.134967e+00   6.483026e+00   4.031781e-02   3.922752e-02   4.030528e-01  -5.565339e-01  
 1.870000e+09   2.861626e-01  -6.241582e-01  -2.095092e+00   6.479784e+00   4.056905e-02   3.923940e-02   4.001546e-01  -5.569136e-01  
 1.880000e+09   2.820241e-01  -6.238285e-01  -2.055384e+00   6.476309e+00   4.081966e-02   3.924987e-02   3.972647e-01  -5.572817e-01  
 1.890000e+09   2.779019e-01  -6.234720e-01  -2.015843e+00   6.472605e+00   4.106965e-02   3.925895e-02   3.943831e-01  -5.576383e-01  
 1.900000e+09   2.737961e-01  -6.230890e-01  -1.976470e+00   6.468673e+00   4.131901e-02   3.926666e-02   3.915096e-01  -5.579836e-01  
 1.910000e+09   2.697068e-01  -6.226798e-01  -1.937265e+00   6.464517e+00   4.156773e-02   3.927301e-02   3.886443e-01  -5.583176e-01  
 1.920000e+09   2.656342e-01  -6.222447e-01  -1.898230e+00   6.460138e+00   4.181581e-02   3.927800e-02   3.857871e-01  -5.586405e-01  
 1.930000e+09   2.615783e-01  -6.217839e-01  -1.859364e+00   6.455538e+00   4.206325e-02   3.928166e-02   3.829380e-01  -5.589523e-01  
 1.940000e+09   2.575393e-01  -6.212976e-01  -1.820668e+00   6.450721e+00   4.231003e-02   3.928399e-02   3.800971e-01  -5.592532e-01  
 1.950000e+09   2.535173e-01  -6.207863e-01  -1.782143e+00   6.445688e+00   4.255617e-02   3.928500e-02   3.772642e-01  -5.595433e-01  
 1.960000e+09   2.495124e-01  -6.202501e-01  -1.743789e+00   6.440442e+00   4.280164e-02   3.928472e-02   3.744394e-01  -5.598227e-01  
 1.970000e+09   2.455247e-01  -6.196894e-01  -1.705608e+00   6.434985e+00   4.304646e-02   3.928315e-02   3.716226e-01  -5.600915e-01  
 1.980000e+09   2.415543e-01  -6.191043e-01  -1.667598e+00   6.429319e+00   4.329061e-02   3.928031e-02   3.688138e-01  -5.603498e-01  
 1.990000e+09   2.376013e-01  -6.184952e-01  -1.629762e+00   6.423447e+00   4.353409e-02   3.927620e-02   3.660130e-01  -5.605977e-01  
 2.000000e+09   2.336658e-01  -6.178624e-01  -1.592098e+00   6.417372e+00   4.377691e-02   3.927085e-02   3.632202e-01  -5.608353e-01  
 2.010000e+09   2.297479e-01  -6.172061e-01  -1.554609e+00   6.411094e+00   4.401905e-02   3.926425e-02   3.604353e-01  -5.610627e-01  
 2.020000e+09   2.258476e-01  -6.165266e-01  -1.517293e+00   6.404617e+00   4.426051e-02   3.925643e-02   3.576583e-01  -5.612800e-01  
 2.030000e+09   2.219651e-01  -6.158241e-01  -1.480152e+00   6.397943e+00   4.450129e-02   3.924740e-02   3.548892e-01  -5.614873e-01  
 2.040000e+09   2.181005e-01  -6.150989e-01  -1.443186e+00   6.391074e+00   4.474140e-02   3.923717e-02   3.521279e-01  -5.616848e-01  
 2.050000e+09   2.142537e-01  -6.143514e-01  -1.406395e+00   6.384013e+00   4.498081e-02   3.922574e-02   3.493745e-01  -5.618724e-01  
 2.060000e+09   2.104249e-01  -6.135816e-01  -1.369779e+00   6.376761e+00   4.521954e-02   3.921315e-02   3.466289e-01  -5.620503e-01  
 2.070000e+09   2.066142e-01  -6.127900e-01  -1.333339e+00   6.369320e+00   4.545759e-02   3.919938e-02   3.438911e-01  -5.622187e-01  
 2.080000e+09   2.028216e-01  -6.119767e-01  -1.297075e+00   6.361694e+00   4.569494e-02   3.918446e-02   3.411610e-01  -5.623775e-01  
 2.090000e+09   1.990472e-01  -6.111421e-01  -1.260988e+00   6.353883e+00   4.593160e-02   3.916840e-02   3.384387e-01  -5.625269e-01  
 2.100000e+09   1.952910e-01  -6.102863e-01  -1.225077e+00   6.345891e+00   4.616756e-02   3.915121e-02   3.357241e-01  -5.626671e-01  
 2.110000e+09   1.915532e-01  -6.094097e-01  -1.189343e+00   6.337719e+00   4.640283e-02   3.913290e-02   3.330171e-01  -5.627979e-01  
 2.120000e+09   1.878337e-01  -6.085125e-01  -1.153786e+00   6.329369e+00   4.663740e-02   3.911349e-02   3.303178e-01  -5.629197e-01  
 2.130000e+09   1.841326e-01  -6.075949e-01  -1.118406e+00   6.320844e+00   4.687128e-02   3.909298e-02   3.276262e-01  -5.630324e-01  
 2.140000e+09   1.804500e-01  -6.066572e-01  -1.083203e+00   6.312146e+00   4.710445e-02   3.907138e-02   3.249421e-01  -5.631361e-01  
 2.150000e+09   1.767859e-01  -6.056997e-01  -1.048178e+00   6.303277e+00   4.733692e-02   3.904871e-02   3.222656e-01  -5.632310e-01  
 2.160000e+09   1.731404e-01  -6.047226e-01  -1.013331e+00   6.294239e+00   4.756869e-02   3.902498e-02   3.195966e-01  -5.633171e-01  
 2.170000e+09   1.695135e-01  -6.037261e-01  -9.786614e-01   6.285033e+00   4.779975e-02   3.900020e-02   3.169351e-01  -5.633946e-01  
 2.180000e+09   1.659052e-01  -6.027106e-01  -9.441697e-01   6.275663e+00   4.803011e-02   3.897437e-02   3.142811e-01  -5.634634e-01  
 2.190000e+09   1.623157e-01  -6.016762e-01  -9.098560e-01   6.266129e+00   4.825977e-02   3.894752e-02   3.116346e-01  -5.635237e-01  
 2.200000e+09   1.587448e-01  -6.006231e-01  -8.757202e-01   6.256435e+00   4.848871e-02   3.891965e-02   3.089955e-01  -5.635756e-01  