!2-port S-parameter file
!Title: test for scattering parameters
!Generated by ngspice at Tue Jul 20 11:36:28  2021
# Hz S RI R 50
!freq            ReS11           ImS11           ReS21           ImS21           ReS12           ImS12           ReS22           ImS22         
 3.000000e+07   9.427360e-01  -2.340943e-02  -1.453777e+01   4.521800e-01   2.683507e-05   1.235920e-03   9.932631e-01  -2.527693e-02  
 4.000000e+07   9.423317e-01  -3.120016e-02  -1.452851e+01   6.025513e-01   4.624158e-05   1.647247e-03   9.927158e-01  -3.367902e-02  
 5.000000e+07   9.418125e-01  -3.898029e-02  -1.451663e+01   7.526193e-01   7.115910e-05   2.058022e-03   9.920136e-01  -4.206100e-02  
 6.000000e+07   9.411787e-01  -4.674719e-02  -1.450214e+01   9.023093e-01   1.015625e-04   2.468109e-03   9.911575e-01  -5.041796e-02  
 7.000000e+07   9.404308e-01  -5.449826e-02  -1.448506e+01   1.051548e+00   1.374214e-04   2.877374e-03   9.901488e-01  -5.874505e-02  
 8.000000e+07   9.395696e-01  -6.223095e-02  -1.446540e+01   1.200263e+00   1.787000e-04   3.285685e-03   9.889890e-01  -6.703750e-02  
 9.000000e+07   9.385955e-01  -6.994271e-02  -1.444320e+01   1.348382e+00   2.253574e-04   3.692912e-03   9.876798e-01  -7.529064e-02  
 1.000000e+08   9.375094e-01  -7.763103e-02  -1.441847e+01   1.495837e+00   2.773479e-04   4.098926e-03   9.862230e-01  -8.349990e-02  
 1.100000e+08   9.363122e-01  -8.529347e-02  -1.439125e+01   1.642559e+00   3.346209e-04   4.503604e-03   9.846209e-01  -9.166086e-02  
 1.200000e+08   9.350047e-01  -9.292759e-02  -1.436157e+01   1.788481e+00   3.971212e-04   4.906822e-03   9.828756e-01  -9.976918e-02  
 1.300000e+08   9.335880e-01  -1.005310e-01  -1.432946e+01   1.933539e+00   4.647893e-04   5.308461e-03   9.809897e-01  -1.078207e-01  
 1.400000e+08   9.320630e-01  -1.081014e-01  -1.429497e+01   2.077670e+00   5.375614e-04   5.708406e-03   9.789658e-01  -1.158114e-01  
 1.500000e+08   9.304311e-01  -1.156366e-01  -1.425812e+01   2.220813e+00   6.153699e-04   6.106544e-03   9.768067e-01  -1.237374e-01  
 1.600000e+08   9.286933e-01  -1.231342e-01  -1.421896e+01   2.362910e+00   6.981434e-04   6.502767e-03   9.745154e-01  -1.315950e-01  
 1.700000e+08   9.268509e-01  -1.305921e-01  -1.417753e+01   2.503905e+00   7.858070e-04   6.896969e-03   9.720948e-01  -1.393806e-01  
 1.800000e+08   9.249053e-01  -1.380083e-01  -1.413389e+01   2.643744e+00   8.782826e-04   7.289051e-03   9.695483e-01  -1.470909e-01  
 1.900000e+08   9.228578e-01  -1.453806e-01  -1.408807e+01   2.782375e+00   9.754894e-04   7.678913e-03   9.668791e-01  -1.547228e-01  
 2.000000e+08   9.207099e-01  -1.527071e-01  -1.404011e+01   2.919749e+00   1.077343e-03   8.066465e-03   9.640906e-01  -1.622731e-01  
 2.100000e+08   9.184630e-01  -1.599859e-01  -1.399009e+01   3.055819e+00   1.183759e-03   8.451618e-03   9.611863e-01  -1.697391e-01  
 2.200000e+08   9.161188e-01  -1.672152e-01  -1.393803e+01   3.190541e+00   1.294647e-03   8.834286e-03   9.581699e-01  -1.771183e-01  
 2.300000e+08   9.136787e-01  -1.743930e-01  -1.388400e+01   3.323875e+00   1.409918e-03   9.214391e-03   9.550448e-01  -1.844080e-01  
 2.400000e+08   9.111445e-01  -1.815179e-01  -1.382804e+01   3.455780e+00   1.529479e-03   9.591856e-03   9.518149e-01  -1.916062e-01  
 2.500000e+08   9.085176e-01  -1.885879e-01  -1.377021e+01   3.586220e+00   1.653238e-03   9.966610e-03   9.484839e-01  -1.987106e-01  
 2.600000e+08   9.057999e-01  -1.956017e-01  -1.371057e+01   3.715161e+00   1.781099e-03   1.033859e-02   9.450554e-01  -2.057195e-01  
 2.700000e+08   9.029929e-01  -2.025577e-01  -1.364917e+01   3.842572e+00   1.912967e-03   1.070772e-02   9.415333e-01  -2.126312e-01  
 2.800000e+08   9.000985e-01  -2.094544e-01  -1.358605e+01   3.968424e+00   2.048747e-03   1.107396e-02   9.379214e-01  -2.194441e-01  
 2.900000e+08   8.971184e-01  -2.162904e-01  -1.352128e+01   4.092689e+00   2.188340e-03   1.143724e-02   9.342234e-01  -2.261570e-01  
 3.000000e+08   8.940544e-01  -2.230645e-01  -1.345492e+01   4.215344e+00   2.331651e-03   1.179752e-02   9.304431e-01  -2.327686e-01  
 3.100000e+08   8.909082e-01  -2.297754e-01  -1.338701e+01   4.336368e+00   2.478582e-03   1.215475e-02   9.265843e-01  -2.392780e-01  
 3.200000e+08   8.876817e-01  -2.364218e-01  -1.331761e+01   4.455739e+00   2.629036e-03   1.250889e-02   9.226506e-01  -2.456844e-01  
 3.300000e+08   8.843766e-01  -2.430028e-01  -1.324678e+01   4.573442e+00   2.782916e-03   1.285990e-02   9.186458e-01  -2.519871e-01  
 3.400000e+08   8.809948e-01  -2.495172e-01  -1.317457e+01   4.689460e+00   2.940126e-03   1.320774e-02   9.145736e-01  -2.581856e-01  
 3.500000e+08   8.775381e-01  -2.559640e-01  -1.310102e+01   4.803781e+00   3.100570e-03   1.355239e-02   9.104374e-01  -2.642796e-01  
 3.600000e+08   8.740083e-01  -2.623424e-01  -1.302621e+01   4.916393e+00   3.264153e-03   1.389381e-02   9.062409e-01  -2.702687e-01  
 3.700000e+08   8.704072e-01  -2.686514e-01  -1.295017e+01   5.027288e+00   3.430781e-03   1.423199e-02   9.019876e-01  -2.761531e-01  
 3.800000e+08   8.667366e-01  -2.748902e-01  -1.287297e+01   5.136458e+00   3.600362e-03   1.456689e-02   8.976807e-01  -2.819326e-01  
 3.900000e+08   8.629984e-01  -2.810582e-01  -1.279464e+01   5.243897e+00   3.772802e-03   1.489852e-02   8.933238e-01  -2.876075e-01  
 4.000000e+08   8.591943e-01  -2.871544e-01  -1.271525e+01   5.349602e+00   3.948011e-03   1.522684e-02   8.889199e-01  -2.931781e-01  
 4.100000e+08   8.553262e-01  -2.931785e-01  -1.263484e+01   5.453571e+00   4.125900e-03   1.555185e-02   8.844725e-01  -2.986448e-01  
 4.200000e+08   8.513959e-01  -2.991296e-01  -1.255345e+01   5.555803e+00   4.306381e-03   1.587354e-02   8.799844e-01  -3.040081e-01  
 4.300000e+08   8.474051e-01  -3.050074e-01  -1.247114e+01   5.656299e+00   4.489367e-03   1.619190e-02   8.754588e-01  -3.092685e-01  
 4.400000e+08   8.433556e-01  -3.108112e-01  -1.238796e+01   5.755060e+00   4.674772e-03   1.650693e-02   8.708986e-01  -3.144268e-01  
 4.500000e+08   8.392491e-01  -3.165408e-01  -1.230394e+01   5.852091e+00   4.862514e-03   1.681862e-02   8.663066e-01  -3.194838e-01  
 4.600000e+08   8.350874e-01  -3.221955e-01  -1.221914e+01   5.947396e+00   5.052510e-03   1.712699e-02   8.616856e-01  -3.244402e-01  
 4.700000e+08   8.308722e-01  -3.277752e-01  -1.213359e+01   6.040981e+00   5.244680e-03   1.743203e-02   8.570382e-01  -3.292971e-01  
 4.800000e+08   8.266052e-01  -3.332795e-01  -1.204734e+01   6.132853e+00   5.438946e-03   1.773374e-02   8.523671e-01  -3.340554e-01  
 4.900000e+08   8.222882e-01  -3.387082e-01  -1.196042e+01   6.223020e+00   5.635230e-03   1.803213e-02   8.476747e-01  -3.387162e-01  
 5.000000e+08   8.179227e-01  -3.440609e-01  -1.187289e+01   6.311491e+00   5.833457e-03   1.832722e-02   8.429634e-01  -3.432805e-01  
 5.100000e+08   8.135104e-01  -3.493375e-01  -1.178478e+01   6.398275e+00   6.033555e-03   1.861901e-02   8.382356e-01  -3.477496e-01  
 5.200000e+08   8.090530e-01  -3.545379e-01  -1.169612e+01   6.483383e+00   6.235451e-03   1.890751e-02   8.334934e-01  -3.521246e-01  
 5.300000e+08   8.045521e-01  -3.596620e-01  -1.160696e+01   6.566827e+00   6.439075e-03   1.919273e-02   8.287390e-01  -3.564067e-01  
 5.400000e+08   8.000092e-01  -3.647096e-01  -1.151733e+01   6.648618e+00   6.644360e-03   1.947470e-02   8.239744e-01  -3.605973e-01  
 5.500000e+08   7.954260e-01  -3.696807e-01  -1.142726e+01   6.728769e+00   6.851238e-03   1.975343e-02   8.192015e-01  -3.646975e-01  
 5.600000e+08   7.908040e-01  -3.745754e-01  -1.133679e+01   6.807294e+00   7.059644e-03   2.002892e-02   8.144223e-01  -3.687089e-01  
 5.700000e+08   7.861447e-01  -3.793936e-01  -1.124595e+01   6.884205e+00   7.269517e-03   2.030121e-02   8.096386e-01  -3.726326e-01  
 5.800000e+08   7.814496e-01  -3.841353e-01  -1.115477e+01   6.959516e+00   7.480793e-03   2.057031e-02   8.048520e-01  -3.764700e-01  
 5.900000e+08   7.767202e-01  -3.888007e-01  -1.106329e+01   7.033244e+00   7.693414e-03   2.083624e-02   8.000642e-01  -3.802226e-01  
 6.000000e+08   7.719581e-01  -3.933898e-01  -1.097153e+01   7.105401e+00   7.907321e-03   2.109902e-02   7.952767e-01  -3.838917e-01  
 6.100000e+08   7.671645e-01  -3.979028e-01  -1.087952e+01   7.176004e+00   8.122458e-03   2.135867e-02   7.904910e-01  -3.874787e-01  
 6.200000e+08   7.623410e-01  -4.023398e-01  -1.078729e+01   7.245068e+00   8.338769e-03   2.161521e-02   7.857086e-01  -3.909850e-01  
 6.300000e+08   7.574890e-01  -4.067010e-01  -1.069487e+01   7.312610e+00   8.556202e-03   2.186867e-02   7.809307e-01  -3.944121e-01  
 6.400000e+08   7.526098e-01  -4.109867e-01  -1.060228e+01   7.378644e+00   8.774703e-03   2.211908e-02   7.761586e-01  -3.977612e-01  
 6.500000e+08   7.477048e-01  -4.151969e-01  -1.050955e+01   7.443187e+00   8.994223e-03   2.236644e-02   7.713936e-01  -4.010339e-01  
 6.600000e+08   7.427753e-01  -4.193321e-01  -1.041671e+01   7.506256e+00   9.214713e-03   2.261080e-02   7.666367e-01  -4.042314e-01  
 6.700000e+08   7.378227e-01  -4.233923e-01  -1.032376e+01   7.567867e+00   9.436124e-03   2.285216e-02   7.618891e-01  -4.073553e-01  
 6.800000e+08   7.328482e-01  -4.273780e-01  -1.023075e+01   7.628037e+00   9.658411e-03   2.309057e-02   7.571517e-01  -4.104068e-01  
 6.900000e+08   7.278531e-01  -4.312895e-01  -1.013769e+01   7.686782e+00   9.881529e-03   2.332604e-02   7.524255e-01  -4.133873e-01  
 7.000000e+08   7.228386e-01  -4.351270e-01  -1.004460e+01   7.744119e+00   1.010543e-02   2.355860e-02   7.477115e-01  -4.162983e-01  
 7.100000e+08   7.178060e-01  -4.388909e-01  -9.951499e+00   7.800065e+00   1.033008e-02   2.378827e-02   7.430105e-01  -4.191410e-01  
 7.200000e+08   7.127565e-01  -4.425815e-01  -9.858412e+00   7.854637e+00   1.055544e-02   2.401508e-02   7.383232e-01  -4.219167e-01  
 7.300000e+08   7.076912e-01  -4.461993e-01  -9.765356e+00   7.907852e+00   1.078145e-02   2.423906e-02   7.336505e-01  -4.246269e-01  
 7.400000e+08   7.026114e-01  -4.497445e-01  -9.672349e+00   7.959726e+00   1.100810e-02   2.446023e-02   7.289930e-01  -4.272727e-01  
 7.500000e+08   6.975181e-01  -4.532177e-01  -9.579409e+00   8.010276e+00   1.123533e-02   2.467863e-02   7.243514e-01  -4.298554e-01  
 7.600000e+08   6.924125e-01  -4.566193e-01  -9.486553e+00   8.059519e+00   1.146311e-02   2.489427e-02   7.197263e-01  -4.323764e-01  
 7.700000e+08   6.872957e-01  -4.599496e-01  -9.393798e+00   8.107472e+00   1.169141e-02   2.510718e-02   7.151183e-01  -4.348369e-01  
 7.800000e+08   6.821687e-01  -4.632091e-01  -9.301159e+00   8.154151e+00   1.192018e-02   2.531740e-02   7.105279e-01  -4.372380e-01  
 7.900000e+08   6.770327e-01  -4.663982e-01  -9.208651e+00   8.199573e+00   1.214941e-02   2.552494e-02   7.059557e-01  -4.395810e-01  
 8.000000e+08   6.718886e-01  -4.695176e-01  -9.116290e+00   8.243755e+00   1.237906e-02   2.572983e-02   7.014021e-01  -4.418672e-01  
 8.100000e+08   6.667375e-01  -4.725675e-01  -9.024089e+00   8.286712e+00   1.260908e-02   2.593211e-02   6.968676e-01  -4.440976e-01  
 8.200000e+08   6.615803e-01  -4.755485e-01  -8.932062e+00   8.328461e+00   1.283947e-02   2.613179e-02   6.923524e-01  -4.462733e-01  
 8.300000e+08   6.564181e-01  -4.784611e-01  -8.840223e+00   8.369019e+00   1.307018e-02   2.632891e-02   6.878571e-01  -4.483956e-01  
 8.400000e+08   6.512518e-01  -4.813059e-01  -8.748584e+00   8.408400e+00   1.330118e-02   2.652349e-02   6.833819e-01  -4.504656e-01  
 8.500000e+08   6.460824e-01  -4.840832e-01  -8.657157e+00   8.446623e+00   1.353246e-02   2.671555e-02   6.789272e-01  -4.524843e-01  
 8.600000e+08   6.409107e-01  -4.867938e-01  -8.565955e+00   8.483701e+00   1.376397e-02   2.690513e-02   6.744932e-01  -4.544527e-01  
 8.700000e+08   6.357376e-01  -4.894380e-01  -8.474988e+00   8.519651e+00   1.399571e-02   2.709225e-02   6.700803e-01  -4.563720e-01  
 8.800000e+08   6.305641e-01  -4.920164e-01  -8.384267e+00   8.554489e+00   1.422763e-02   2.727694e-02   6.656885e-01  -4.582432e-01  
 8.900000e+08   6.253910e-01  -4.945297e-01  -8.293803e+00   8.588230e+00   1.445972e-02   2.745922e-02   6.613183e-01  -4.600672e-01  
 9.000000e+08   6.202191e-01  -4.969783e-01  -8.203606e+00   8.620890e+00   1.469196e-02   2.763912e-02   6.569697e-01  -4.618451e-01  
 9.100000e+08   6.150493e-01  -4.993628e-01  -8.113686e+00   8.652483e+00   1.492432e-02   2.781666e-02   6.526429e-01  -4.635778e-01  
 9.200000e+08   6.098823e-01  -5.016837e-01  -8.024052e+00   8.683024e+00   1.515677e-02   2.799188e-02   6.483382e-01  -4.652662e-01  
 9.300000e+08   6.047190e-01  -5.039418e-01  -7.934714e+00   8.712530e+00   1.538930e-02   2.816479e-02   6.440555e-01  -4.669114e-01  
 9.400000e+08   5.995602e-01  -5.061375e-01  -7.845679e+00   8.741013e+00   1.562189e-02   2.833542e-02   6.397951e-01  -4.685141e-01  
 9.500000e+08   5.944065e-01  -5.082713e-01  -7.756956e+00   8.768490e+00   1.585452e-02   2.850380e-02   6.355570e-01  -4.700754e-01  
 9.600000e+08   5.892587e-01  -5.103441e-01  -7.668553e+00   8.794974e+00   1.608716e-02   2.866996e-02   6.313414e-01  -4.715960e-01  
 9.700000e+08   5.841175e-01  -5.123562e-01  -7.580478e+00   8.820481e+00   1.631980e-02   2.883391e-02   6.271483e-01  -4.730768e-01  
 9.800000e+08   5.789837e-01  -5.143083e-01  -7.492738e+00   8.845024e+00   1.655243e-02   2.899569e-02   6.229777e-01  -4.745187e-01  
 9.900000e+08   5.738578e-01  -5.162011e-01  -7.405341e+00   8.868617e+00   1.678501e-02   2.915531e-02   6.188298e-01  -4.759224e-01  
 1.000000e+09   5.687406e-01  -5.180350e-01  -7.318293e+00   8.891274e+00   1.701754e-02   2.931281e-02   6.147045e-01  -4.772888e-01  
 1.010000e+09   5.636327e-01  -5.198108e-01  -7.231600e+00   8.913010e+00   1.725000e-02   2.946820e-02   6.106018e-01  -4.786186e-01  
 1.020000e+09   5.585348e-01  -5.215290e-01  -7.145268e+00   8.933837e+00   1.748238e-02   2.962152e-02   6.065219e-01  -4.799126e-01  
 1.030000e+09   5.534474e-01  -5.231903e-01  -7.059305e+00   8.953770e+00   1.771465e-02   2.977278e-02   6.024646e-01  -4.811716e-01  
 1.040000e+09   5.483712e-01  -5.247953e-01  -6.973715e+00   8.972822e+00   1.794681e-02   2.992201e-02   5.984300e-01  -4.823963e-01  
 1.050000e+09   5.433067e-01  -5.263445e-01  -6.888504e+00   8.991006e+00   1.817883e-02   3.006923e-02   5.944181e-01  -4.835875e-01  
 1.060000e+09   5.382545e-01  -5.278387e-01  -6.803678e+00   9.008334e+00   1.841072e-02   3.021447e-02   5.904288e-01  -4.847457e-01  
 1.070000e+09   5.332151e-01  -5.292783e-01  -6.719240e+00   9.024821e+00   1.864244e-02   3.035776e-02   5.864621e-01  -4.858717e-01  
 1.080000e+09   5.281892e-01  -5.306642e-01  -6.635197e+00   9.040479e+00   1.887400e-02   3.049910e-02   5.825179e-01  -4.869662e-01  
 1.090000e+09   5.231771e-01  -5.319968e-01  -6.551551e+00   9.055321e+00   1.910537e-02   3.063853e-02   5.785963e-01  -4.880298e-01  
 1.100000e+09   5.181795e-01  -5.332767e-01  -6.468309e+00   9.069359e+00   1.933656e-02   3.077607e-02   5.746971e-01  -4.890632e-01  
 1.110000e+09   5.131968e-01  -5.345047e-01  -6.385474e+00   9.082606e+00   1.956753e-02   3.091175e-02   5.708203e-01  -4.900670e-01  
 1.120000e+09   5.082294e-01  -5.356814e-01  -6.303050e+00   9.095073e+00   1.979829e-02   3.104557e-02   5.669658e-01  -4.910418e-01  
 1.130000e+09   5.032779e-01  -5.368073e-01  -6.221040e+00   9.106774e+00   2.002883e-02   3.117758e-02   5.631336e-01  -4.919883e-01  
 1.140000e+09   4.983426e-01  -5.378830e-01  -6.139448e+00   9.117719e+00   2.025912e-02   3.130778e-02   5.593235e-01  -4.929069e-01  
 1.150000e+09   4.934241e-01  -5.389093e-01  -6.058278e+00   9.127922e+00   2.048918e-02   3.143620e-02   5.555355e-01  -4.937983e-01  
 1.160000e+09   4.885227e-01  -5.398867e-01  -5.977533e+00   9.137394e+00   2.071898e-02   3.156287e-02   5.517695e-01  -4.946631e-01  
 1.170000e+09   4.836388e-01  -5.408158e-01  -5.897215e+00   9.146146e+00   2.094851e-02   3.168779e-02   5.480254e-01  -4.955018e-01  
 1.180000e+09   4.787729e-01  -5.416973e-01  -5.817328e+00   9.154190e+00   2.117777e-02   3.181101e-02   5.443030e-01  -4.963150e-01  
 1.190000e+09   4.739252e-01  -5.425317e-01  -5.737874e+00   9.161537e+00   2.140675e-02   3.193252e-02   5.406024e-01  -4.971031e-01  
 1.200000e+09   4.690963e-01  -5.433197e-01  -5.658856e+00   9.168198e+00   2.163545e-02   3.205237e-02   5.369234e-01  -4.978667e-01  
 1.210000e+09   4.642864e-01  -5.440619e-01  -5.580276e+00   9.174185e+00   2.186385e-02   3.217056e-02   5.332659e-01  -4.986063e-01  
 1.220000e+09   4.594958e-01  -5.447589e-01  -5.502136e+00   9.179508e+00   2.209195e-02   3.228712e-02   5.296297e-01  -4.993224e-01  
 1.230000e+09   4.547250e-01  -5.454113e-01  -5.424438e+00   9.184179e+00   2.231974e-02   3.240206e-02   5.260148e-01  -5.000155e-01  
 1.240000e+09   4.499741e-01  -5.460197e-01  -5.347184e+00   9.188208e+00   2.254722e-02   3.251541e-02   5.224210e-01  -5.006860e-01  
 1.250000e+09   4.452436e-01  -5.465848e-01  -5.270376e+00   9.191606e+00   2.277437e-02   3.262719e-02   5.188483e-01  -5.013345e-01  
 1.260000e+09   4.405337e-01  -5.471070e-01  -5.194015e+00   9.194383e+00   2.300120e-02   3.273742e-02   5.152965e-01  -5.019613e-01  
 1.270000e+09   4.358446e-01  -5.475870e-01  -5.118103e+00   9.196549e+00   2.322770e-02   3.284611e-02   5.117654e-01  -5.025670e-01  
 1.280000e+09   4.311767e-01  -5.480255e-01  -5.042642e+00   9.198114e+00   2.345386e-02   3.295329e-02   5.082550e-01  -5.031520e-01  
 1.290000e+09   4.265303e-01  -5.484229e-01  -4.967632e+00   9.199090e+00   2.367969e-02   3.305897e-02   5.047651e-01  -5.037166e-01  
 1.300000e+09   4.219055e-01  -5.487799e-01  -4.893074e+00   9.199485e+00   2.390516e-02   3.316317e-02   5.012956e-01  -5.042613e-01  
 1.310000e+09   4.173026e-01  -5.490970e-01  -4.818970e+00   9.199310e+00   2.413029e-02   3.326592e-02   4.978463e-01  -5.047866e-01  
 1.320000e+09   4.127218e-01  -5.493749e-01  -4.745321e+00   9.198574e+00   2.435506e-02   3.336722e-02   4.944172e-01  -5.052928e-01  
 1.330000e+09   4.081634e-01  -5.496140e-01  -4.672126e+00   9.197287e+00   2.457948e-02   3.346710e-02   4.910080e-01  -5.057803e-01  
 1.340000e+09   4.036275e-01  -5.498151e-01  -4.599387e+00   9.195458e+00   2.480354e-02   3.356557e-02   4.876187e-01  -5.062495e-01  
 1.350000e+09   3.991144e-01  -5.499785e-01  -4.527105e+00   9.193097e+00   2.502724e-02   3.366266e-02   4.842491e-01  -5.067008e-01  
 1.360000e+09   3.946242e-01  -5.501050e-01  -4.455279e+00   9.190213e+00   2.525057e-02   3.375838e-02   4.808991e-01  -5.071345e-01  
 1.370000e+09   3.901571e-01  -5.501951e-01  -4.383910e+00   9.186815e+00   2.547353e-02   3.385274e-02   4.775686e-01  -5.075510e-01  
 1.380000e+09   3.857132e-01  -5.502492e-01  -4.312998e+00   9.182912e+00   2.569612e-02   3.394577e-02   4.742573e-01  -5.079507e-01  
 1.390000e+09   3.812929e-01  -5.502680e-01  -4.242543e+00   9.178513e+00   2.591834e-02   3.403747e-02   4.709652e-01  -5.083339e-01  
 1.400000e+09   3.768961e-01  -5.502521e-01  -4.172546e+00   9.173627e+00   2.614018e-02   3.412788e-02   4.676920e-01  -5.087009e-01  
 1.410000e+09   3.725230e-01  -5.502018e-01  -4.103006e+00   9.168262e+00   2.636165e-02   3.421699e-02   4.644378e-01  -5.090522e-01  
 1.420000e+09   3.681738e-01  -5.501179e-01  -4.033923e+00   9.162428e+00   2.658274e-02   3.430484e-02   4.612023e-01  -5.093879e-01  
 1.430000e+09   3.638485e-01  -5.500008e-01  -3.965297e+00   9.156132e+00   2.680346e-02   3.439143e-02   4.579853e-01  -5.097085e-01  
 1.440000e+09   3.595474e-01  -5.498510e-01  -3.897127e+00   9.149383e+00   2.702379e-02   3.447679e-02   4.547868e-01  -5.100142e-01  
 1.450000e+09   3.552705e-01  -5.496691e-01  -3.829414e+00   9.142188e+00   2.724374e-02   3.456092e-02   4.516066e-01  -5.103054e-01  
 1.460000e+09   3.510179e-01  -5.494555e-01  -3.762156e+00   9.134558e+00   2.746331e-02   3.464384e-02   4.484446e-01  -5.105823e-01  
 1.470000e+09   3.467896e-01  -5.492109e-01  -3.695353e+00   9.126498e+00   2.768251e-02   3.472556e-02   4.453005e-01  -5.108452e-01  
 1.480000e+09   3.425859e-01  -5.489357e-01  -3.629004e+00   9.118017e+00   2.790132e-02   3.480611e-02   4.421743e-01  -5.110945e-01  
 1.490000e+09   3.384067e-01  -5.486303e-01  -3.563109e+00   9.109123e+00   2.811974e-02   3.488550e-02   4.390658e-01  -5.113304e-01  
 1.500000e+09   3.342522e-01  -5.482954e-01  -3.497667e+00   9.099824e+00   2.833779e-02   3.496373e-02   4.359749e-01  -5.115531e-01  
 1.510000e+09   3.301224e-01  -5.479314e-01  -3.432677e+00   9.090127e+00   2.855546e-02   3.504083e-02   4.329014e-01  -5.117631e-01  
 1.520000e+09   3.260173e-01  -5.475387e-01  -3.368139e+00   9.080039e+00   2.877274e-02   3.511681e-02   4.298452e-01  -5.119604e-01  
 1.530000e+09   3.219371e-01  -5.471179e-01  -3.304050e+00   9.069569e+00   2.898965e-02   3.519168e-02   4.268061e-01  -5.121455e-01  
 1.540000e+09   3.178817e-01  -5.466695e-01  -3.240411e+00   9.058723e+00   2.920618e-02   3.526545e-02   4.237840e-01  -5.123185e-01  
 1.550000e+09   3.138512e-01  -5.461938e-01  -3.177219e+00   9.047508e+00   2.942232e-02   3.533814e-02   4.207787e-01  -5.124796e-01  
 1.560000e+09   3.098456e-01  -5.456915e-01  -3.114475e+00   9.035932e+00   2.963809e-02   3.540977e-02   4.177901e-01  -5.126292e-01  
 1.570000e+09   3.058650e-01  -5.451629e-01  -3.052176e+00   9.024002e+00   2.985349e-02   3.548034e-02   4.148181e-01  -5.127675e-01  
 1.580000e+09   3.019093e-01  -5.446085e-01  -2.990322e+00   9.011724e+00   3.006851e-02   3.554987e-02   4.118625e-01  -5.128947e-01  
 1.590000e+09   2.979787e-01  -5.440287e-01  -2.928911e+00   8.999105e+00   3.028316e-02   3.561837e-02   4.089231e-01  -5.130110e-01  
 1.600000e+09   2.940730e-01  -5.434240e-01  -2.867941e+00   8.986152e+00   3.049743e-02   3.568585e-02   4.059999e-01  -5.131167e-01  
 1.610000e+09   2.901924e-01  -5.427949e-01  -2.807412e+00   8.972871e+00   3.071134e-02   3.575233e-02   4.030926e-01  -5.132120e-01  
 1.620000e+09   2.863368e-01  -5.421418e-01  -2.747322e+00   8.959270e+00   3.092488e-02   3.581781e-02   4.002012e-01  -5.132970e-01  
 1.630000e+09   2.825062e-01  -5.414650e-01  -2.687669e+00   8.945353e+00   3.113805e-02   3.588232e-02   3.973254e-01  -5.133721e-01  
 1.640000e+09   2.787005e-01  -5.407651e-01  -2.628453e+00   8.931129e+00   3.135085e-02   3.594585e-02   3.944652e-01  -5.134374e-01  
 1.650000e+09   2.749199e-01  -5.400425e-01  -2.569670e+00   8.916602e+00   3.156330e-02   3.600843e-02   3.916204e-01  -5.134931e-01  
 1.660000e+09   2.711642e-01  -5.392975e-01  -2.511320e+00   8.901779e+00   3.177539e-02   3.607005e-02   3.887909e-01  -5.135395e-01  
 1.670000e+09   2.674335e-01  -5.385306e-01  -2.453401e+00   8.886667e+00   3.198711e-02   3.613074e-02   3.859765e-01  -5.135766e-01  
 1.680000e+09   2.637276e-01  -5.377422e-01  -2.395912e+00   8.871270e+00   3.219849e-02   3.619051e-02   3.831770e-01  -5.136048e-01  
 1.690000e+09   2.600467e-01  -5.369326e-01  -2.338850e+00   8.855595e+00   3.240951e-02   3.624936e-02   3.803924e-01  -5.136241e-01  
 1.700000e+09   2.563906e-01  -5.361024e-01  -2.282213e+00   8.839648e+00   3.262018e-02   3.630731e-02   3.776225e-01  -5.136349e-01  
 1.710000e+09   2.527592e-01  -5.352518e-01  -2.226001e+00   8.823434e+00   3.283050e-02   3.636436e-02   3.748671e-01  -5.136371e-01  
 1.720000e+09   2.491527e-01  -5.343813e-01  -2.170211e+00   8.806958e+00   3.304048e-02   3.642053e-02   3.721262e-01  -5.136311e-01  
 1.730000e+09   2.455709e-01  -5.334912e-01  -2.114842e+00   8.790227e+00   3.325012e-02   3.647582e-02   3.693996e-01  -5.136171e-01  
 1.740000e+09   2.420137e-01  -5.325819e-01  -2.059890e+00   8.773246e+00   3.345942e-02   3.653026e-02   3.666871e-01  -5.135950e-01  
 1.750000e+09   2.384812e-01  -5.316538e-01  -2.005356e+00   8.756020e+00   3.366838e-02   3.658383e-02   3.639886e-01  -5.135653e-01  
 1.760000e+09   2.349732e-01  -5.307072e-01  -1.951236e+00   8.738555e+00   3.387702e-02   3.663656e-02   3.613040e-01  -5.135279e-01  
 1.770000e+09   2.314897e-01  -5.297426e-01  -1.897528e+00   8.720855e+00   3.408532e-02   3.668845e-02   3.586331e-01  -5.134830e-01  
 1.780000e+09   2.280306e-01  -5.287602e-01  -1.844232e+00   8.702925e+00   3.429329e-02   3.673952e-02   3.559759e-01  -5.134309e-01  
 1.790000e+09   2.245959e-01  -5.277605e-01  -1.791343e+00   8.684772e+00   3.450095e-02   3.678977e-02   3.533321e-01  -5.133717e-01  
 1.800000e+09   2.211855e-01  -5.267436e-01  -1.738862e+00   8.666399e+00   3.470828e-02   3.683921e-02   3.507016e-01  -5.133054e-01  
 1.810000e+09   2.177993e-01  -5.257101e-01  -1.686785e+00   8.647811e+00   3.491530e-02   3.688785e-02   3.480844e-01  -5.132323e-01  
 1.820000e+09   2.144373e-01  -5.246603e-01  -1.635111e+00   8.629014e+00   3.512200e-02   3.693569e-02   3.454802e-01  -5.131525e-01  
 1.830000e+09   2.110994e-01  -5.235944e-01  -1.583837e+00   8.610011e+00   3.532840e-02   3.698275e-02   3.428890e-01  -5.130662e-01  
 1.840000e+09   2.077854e-01  -5.225128e-01  -1.532961e+00   8.590808e+00   3.553449e-02   3.702903e-02   3.403105e-01  -5.129734e-01  
 1.850000e+09   2.044954e-01  -5.214158e-01  -1.482482e+00   8.571409e+00   3.574027e-02   3.707455e-02   3.377448e-01  -5.128743e-01  
 1.860000e+09   2.012292e-01  -5.203038e-01  -1.432397e+00   8.551819e+00   3.594576e-02   3.711930e-02   3.351916e-01  -5.127690e-01  
 1.870000e+09   1.979867e-01  -5.191770e-01  -1.382704e+00   8.532042e+00   3.615095e-02   3.716330e-02   3.326509e-01  -5.126577e-01  
 1.880000e+09   1.947679e-01  -5.180358e-01  -1.333400e+00   8.512083e+00   3.635586e-02   3.720656e-02   3.301224e-01  -5.125405e-01  
 1.890000e+09   1.915727e-01  -5.168804e-01  -1.284484e+00   8.491945e+00   3.656047e-02   3.724907e-02   3.276061e-01  -5.124176e-01  
 1.900000e+09   1.884010e-01  -5.157112e-01  -1.235954e+00   8.471633e+00   3.676480e-02   3.729086e-02   3.251019e-01  -5.122889e-01  
 1.910000e+09   1.852526e-01  -5.145285e-01  -1.187807e+00   8.451150e+00   3.696885e-02   3.733191e-02   3.226096e-01  -5.121547e-01  
 1.920000e+09   1.821275e-01  -5.133325e-01  -1.140041e+00   8.430502e+00   3.717262e-02   3.737226e-02   3.201291e-01  -5.120150e-01  
 1.930000e+09   1.790256e-01  -5.121235e-01  -1.092654e+00   8.409692e+00   3.737612e-02   3.741188e-02   3.176603e-01  -5.118701e-01  
 1.940000e+09   1.759468e-01  -5.109019e-01  -1.045643e+00   8.388724e+00   3.757935e-02   3.745081e-02   3.152030e-01  -5.117199e-01  
 1.950000e+09   1.728910e-01  -5.096679e-01  -9.990074e-01   8.367602e+00   3.778232e-02   3.748903e-02   3.127571e-01  -5.115646e-01  
 1.960000e+09   1.698581e-01  -5.084217e-01  -9.527436e-01   8.346330e+00   3.798502e-02   3.752657e-02   3.103226e-01  -5.114042e-01  
 1.970000e+09   1.668480e-01  -5.071637e-01  -9.068498e-01   8.324911e+00   3.818747e-02   3.756342e-02   3.078993e-01  -5.112390e-01  
 1.980000e+09   1.638605e-01  -5.058941e-01  -8.613238e-01   8.303349e+00   3.838967e-02   3.759958e-02   3.054870e-01  -5.110690e-01  
 1.990000e+09   1.608957e-01  -5.046131e-01  -8.161633e-01   8.281647e+00   3.859161e-02   3.763507e-02   3.030857e-01  -5.108943e-01  
 2.000000e+09   1.579533e-01  -5.033211e-01  -7.713660e-01   8.259810e+00   3.879331e-02   3.766990e-02   3.006952e-01  -5.107149e-01  
 2.010000e+09   1.550332e-01  -5.020183e-01  -7.269298e-01   8.237841e+00   3.899477e-02   3.770406e-02   2.983155e-01  -5.105311e-01  
 2.020000e+09   1.521355e-01  -5.007049e-01  -6.828524e-01   8.215743e+00   3.919599e-02   3.773756e-02   2.959463e-01  -5.103428e-01  
 2.030000e+09   1.492598e-01  -4.993812e-01  -6.391316e-01   8.193519e+00   3.939697e-02   3.777041e-02   2.935877e-01  -5.101502e-01  
 2.040000e+09   1.464062e-01  -4.980474e-01  -5.957650e-01   8.171173e+00   3.959773e-02   3.780261e-02   2.912394e-01  -5.099533e-01  
 2.050000e+09   1.435746e-01  -4.967038e-01  -5.527505e-01   8.148709e+00   3.979826e-02   3.783417e-02   2.889014e-01  -5.097523e-01  
 2.060000e+09   1.407647e-01  -4.953506e-01  -5.100858e-01   8.126128e+00   3.999857e-02   3.786509e-02   2.865736e-01  -5.095472e-01  
 2.070000e+09   1.379766e-01  -4.939880e-01  -4.677686e-01   8.103436e+00   4.019866e-02   3.789538e-02   2.842558e-01  -5.093381e-01  
 2.080000e+09   1.352100e-01  -4.926162e-01  -4.257968e-01   8.080633e+00   4.039853e-02   3.792504e-02   2.819479e-01  -5.091251e-01  
 2.090000e+09   1.324649e-01  -4.912355e-01  -3.841680e-01   8.057725e+00   4.059820e-02   3.795408e-02   2.796498e-01  -5.089082e-01  
 2.100000e+09   1.297411e-01  -4.898462e-01  -3.428801e-01   8.034713e+00   4.079766e-02   3.798250e-02   2.773615e-01  -5.086875e-01  
 2.110000e+09   1.270386e-01  -4.884483e-01  -3.019307e-01   8.011601e+00   4.099692e-02   3.801030e-02   2.750827e-01  -5.084632e-01  
 2.120000e+09   1.243572e-01  -4.870422e-01  -2.613177e-01   7.988391e+00   4.119598e-02   3.803749e-02   2.728135e-01  -5.082353e-01  
 2.130000e+09   1.216969e-01  -4.856280e-01  -2.210389e-01   7.965086e+00   4.139484e-02   3.806408e-02   2.705536e-01  -5.080038e-01  
 2.140000e+09   1.190574e-01  -4.842059e-01  -1.810919e-01   7.941689e+00   4.159352e-02   3.809006e-02   2.683031e-01  -5.077688e-01  
 2.150000e+09   1.164387e-01  -4.827762e-01  -1.414746e-01   7.918204e+00   4.179201e-02   3.811545e-02   2.660617e-01  -5.075304e-01  
 2.160000e+09   1.138406e-01  -4.813391e-01  -1.021848e-01   7.894631e+00   4.199031e-02   3.814023e-02   2.638294e-01  -5.072886e-01  
 2.170000e+09   1.112631e-01  -4.798947e-01  -6.322023e-02   7.870975e+00   4.218844e-02   3.816443e-02   2.616060e-01  -5.070436e-01  
 2.180000e+09   1.087060e-01  -4.784432e-01  -2.457871e-02   7.847238e+00   4.238639e-02   3.818804e-02   2.593916e-01  -5.067953e-01  
 2.190000e+09   1.061692e-01  -4.769849e-01   1.374196e-02   7.823422e+00   4.258418e-02   3.821106e-02   2.571859e-01  -5.065439e-01  
 2.200000e+09   1.036525e-01  -4.755199e-01   5.174398e-02   7.799529e+00   4.278179e-02   3.823350e-02   2.549889e-01  -5.062894e-01  